<?xml version="1.0" encoding="UTF-8"?>

<!-- generated on 2025-09-20 10:26:11 by Eclipse SUMO sumo Version 1.24.0
<sumoConfiguration xmlns:xsi="http://www.w3.org/2001/XMLSchema-instance" xsi:noNamespaceSchemaLocation="http://sumo.dlr.de/xsd/sumoConfiguration.xsd">

    <input>
        <net-file value="configs/../networks/corridor.net.xml"/>
        <route-files value="configs/../routes/corridor.rou.xml"/>
        <additional-files value="configs/../additional/bus_stops.add.xml,configs/../additional/detectors.add.xml"/>
    </input>

    <output>
        <queue-output value="configs/../output/queue.xml"/>
        <summary-output value="configs/../output/summary.xml"/>
        <tripinfo-output value="configs/../output/tripinfo.xml"/>
        <lanedata-output value="configs/../output/lanedata.xml"/>
    </output>

    <time>
        <begin value="0"/>
        <end value="10"/>
        <step-length value="1"/>
    </time>

    <processing>
        <ignore-route-errors value="true"/>
        <time-to-teleport value="-1"/>
        <max-depart-delay value="300"/>
    </processing>

    <traci_server>
        <remote-port value="32227"/>
    </traci_server>

</sumoConfiguration>
-->

<queue-export xmlns:xsi="http://www.w3.org/2001/XMLSchema-instance" xsi:noNamespaceSchemaLocation="http://sumo.dlr.de/xsd/queue_file.xsd">
</queue-export>
