<?xml version="1.0" encoding="UTF-8"?>

<!-- generated on 2025-09-20 11:22:17 by Eclipse SUMO GUI Version 1.24.0
<sumoConfiguration xmlns:xsi="http://www.w3.org/2001/XMLSchema-instance" xsi:noNamespaceSchemaLocation="http://sumo.dlr.de/xsd/sumoConfiguration.xsd">

    <input>
        <net-file value="configs/../networks/corridor.net.xml"/>
        <route-files value="configs/../routes/corridor.rou.xml"/>
    </input>

    <output>
        <summary-output value="configs/../output/summary.xml"/>
        <tripinfo-output value="configs/../output/tripinfo.xml"/>
    </output>

    <time>
        <begin value="0"/>
        <end value="10"/>
        <step-length value="1"/>
    </time>

    <processing>
        <ignore-route-errors value="true"/>
        <time-to-teleport value="-1"/>
        <waiting-time-memory value="10000"/>
        <max-depart-delay value="300"/>
    </processing>

    <traci_server>
        <remote-port value="31022"/>
    </traci_server>

</sumoConfiguration>
-->

<tripinfos xmlns:xsi="http://www.w3.org/2001/XMLSchema-instance" xsi:noNamespaceSchemaLocation="http://sumo.dlr.de/xsd/tripinfo_file.xsd">
</tripinfos>
